This is the LAMMPS data file starMolecule.data

51 atoms
50 bonds
0 angles
0 dihedrals
0 impropers

2 atom types
2 bond types
0 angle types
0 dihedral types
0 improper types

-0.500 0.500 xlo xhi
-0.500 0.500 ylo yhi
-0.500 0.500 zlo zhi

Masses

1 1.0
2 1.0

Atoms

1 1 0.03711 0.03102 0.00137 1 5 1.0 0 0 0
2 2 0.12758 -0.11999 0.06871 1 1.0 1.0 0 0 0
3 2 0.17316 -0.19608 0.10263 1 1.0 1.0 0 0 0
4 2 0.21390 -0.26411 0.13296 1 1.0 1.0 0 0 0
5 2 0.25110 -0.32620 0.16065 1 1.0 1.0 0 0 0
6 2 0.28591 -0.38428 0.18656 1 1.0 1.0 0 0 0
7 2 0.16197 -0.04884 -0.10890 1 1.0 1.0 0 0 0
8 2 0.22251 -0.08796 -0.16172 1 1.0 1.0 0 0 0
9 2 0.27667 -0.12292 -0.20907 1 1.0 1.0 0 0 0
10 2 0.32630 -0.15485 -0.25260 1 1.0 1.0 0 0 0
11 2 0.37285 -0.18470 -0.29361 1 1.0 1.0 0 0 0
12 2 -0.03965 -0.14779 -0.02883 1 1.0 1.0 0 0 0
13 2 -0.07622 -0.23457 -0.04307 1 1.0 1.0 0 0 0
14 2 -0.10903 -0.31220 -0.05587 1 1.0 1.0 0 0 0
15 2 -0.13924 -0.38331 -0.06769 1 1.0 1.0 0 0 0
16 2 -0.16774 -0.45000 -0.07888 1 1.0 1.0 0 0 0
17 2 -0.14421 0.02530 0.02897 1 1.0 1.0 0 0 0
18 2 -0.23193 0.02322 0.04197 1 1.0 1.0 0 0 0
19 2 -0.31044 0.02126 0.05365 1 1.0 1.0 0 0 0
20 2 -0.38242 0.01930 0.06445 1 1.0 1.0 0 0 0
21 2 -0.45000 0.01730 0.07466 1 1.0 1.0 0 0 0
22 2 -0.02169 0.00397 -0.16671 1 1.0 1.0 0 0 0
23 2 -0.05040 -0.00838 -0.24796 1 1.0 1.0 0 0 0
24 2 -0.07606 -0.01954 -0.32068 1 1.0 1.0 0 0 0
25 2 -0.09952 -0.02994 -0.38737 1 1.0 1.0 0 0 0
26 2 -0.12149 -0.03989 -0.45000 1 1.0 1.0 0 0 0
27 2 0.14185 0.16513 -0.08384 1 1.0 1.0 0 0 0
28 2 0.19192 0.23041 -0.12519 1 1.0 1.0 0 0 0
29 2 0.23681 0.28878 -0.16218 1 1.0 1.0 0 0 0
30 2 0.27812 0.34220 -0.19607 1 1.0 1.0 0 0 0
31 2 0.31705 0.39225 -0.22785 1 1.0 1.0 0 0 0
32 2 -0.05269 0.18279 -0.06544 1 1.0 1.0 0 0 0
33 2 -0.09793 0.25926 -0.09911 1 1.0 1.0 0 0 0
34 2 -0.13838 0.32762 -0.12920 1 1.0 1.0 0 0 0
35 2 -0.17530 0.39003 -0.15667 1 1.0 1.0 0 0 0
36 2 -0.20984 0.44843 -0.18237 1 1.0 1.0 0 0 0
37 2 -0.01170 -0.01837 0.16841 1 1.0 1.0 0 0 0
38 2 -0.03481 -0.04283 0.24918 1 1.0 1.0 0 0 0
39 2 -0.05557 -0.06464 0.32146 1 1.0 1.0 0 0 0
40 2 -0.07472 -0.08451 0.38775 1 1.0 1.0 0 0 0
41 2 -0.09282 -0.10302 0.45000 1 1.0 1.0 0 0 0
42 2 0.19072 0.08129 0.08857 1 1.0 1.0 0 0 0
43 2 0.26512 0.10485 0.13087 1 1.0 1.0 0 0 0
44 2 0.33170 0.12604 0.16872 1 1.0 1.0 0 0 0
45 2 0.39273 0.14565 0.20339 1 1.0 1.0 0 0 0
46 2 0.45000 0.16425 0.23591 1 1.0 1.0 0 0 0
47 2 0.01890 0.18666 0.11276 1 1.0 1.0 0 0 0
48 2 0.00974 0.26231 0.16613 1 1.0 1.0 0 0 0
49 2 0.00158 0.32997 0.21397 1 1.0 1.0 0 0 0
50 2 -0.00581 0.39192 0.25796 1 1.0 1.0 0 0 0
51 2 -0.01267 0.45000 0.29939 1 1.0 1.0 0 0 0

Bonds

1 1 1 2
2 2 2 3
3 2 3 4
4 2 4 5
5 2 5 6
6 1 1 7
7 2 7 8
8 2 8 9
9 2 9 10
10 2 10 11
11 1 1 12
12 2 12 13
13 2 13 14
14 2 14 15
15 2 15 16
16 1 1 17
17 2 17 18
18 2 18 19
19 2 19 20
20 2 20 21
21 1 1 22
22 2 22 23
23 2 23 24
24 2 24 25
25 2 25 26
26 1 1 27
27 2 27 28
28 2 28 29
29 2 29 30
30 2 30 31
31 1 1 32
32 2 32 33
33 2 33 34
34 2 34 35
35 2 35 36
36 1 1 37
37 2 37 38
38 2 38 39
39 2 39 40
40 2 40 41
41 1 1 42
42 2 42 43
43 2 43 44
44 2 44 45
45 2 45 46
46 1 1 47
47 2 47 48
48 2 48 49
49 2 49 50
50 2 50 51
